<?xml version="1.0" encoding="UTF-8"?>

<!-- generated on 2026-01-18T17:46:46.368253+01:00 by Eclipse SUMO sumo v1_24_0+1816-7f71e6754ac
<sumoConfiguration xmlns:xsi="http://www.w3.org/2001/XMLSchema-instance" xsi:noNamespaceSchemaLocation="http://sumo.dlr.de/xsd/sumoConfiguration.xsd">

    <input>
        <net-file value="/Users/alexandrbahno/Desktop/Study/Java/final_project/TrafficSim/./src/main/resources/sumocgf/middle/acosta_buslanes.net.xml"/>
        <route-files value="/Users/alexandrbahno/Desktop/Study/Java/final_project/TrafficSim/./src/main/resources/sumocgf/middle/acosta.rou.xml,/Users/alexandrbahno/Desktop/Study/Java/final_project/TrafficSim/./src/main/resources/sumocgf/middle/acosta_busses.rou.xml"/>
        <additional-files value="/Users/alexandrbahno/Desktop/Study/Java/final_project/TrafficSim/./src/main/resources/sumocgf/middle/acosta_vtypes.add.xml,/Users/alexandrbahno/Desktop/Study/Java/final_project/TrafficSim/./src/main/resources/sumocgf/middle/acosta_detectors.add.xml,/Users/alexandrbahno/Desktop/Study/Java/final_project/TrafficSim/./src/main/resources/sumocgf/middle/acosta_bus_stops.add.xml,/Users/alexandrbahno/Desktop/Study/Java/final_project/TrafficSim/./src/main/resources/sumocgf/middle/acosta_tls.add.xml"/>
    </input>

    <output>
        <tripinfo-output value="/Users/alexandrbahno/Desktop/Study/Java/final_project/TrafficSim/./src/main/resources/sumocgf/middle/tripinfos.xml"/>
    </output>

    <time>
        <step-length value="0.1"/>
    </time>

    <report>
        <log value="/Users/alexandrbahno/Desktop/Study/Java/final_project/TrafficSim/./src/main/resources/sumocgf/middle/sumo_log.txt"/>
        <no-step-log value="true"/>
    </report>

    <traci_server>
        <remote-port value="55512"/>
    </traci_server>

    <gui_only>
        <gui-settings-file value="/Users/alexandrbahno/Desktop/Study/Java/final_project/TrafficSim/./src/main/resources/sumocgf/middle/settings.gui.xml"/>
    </gui_only>

</sumoConfiguration>
-->

<tripinfos xmlns:xsi="http://www.w3.org/2001/XMLSchema-instance" xsi:noNamespaceSchemaLocation="http://sumo.dlr.de/xsd/tripinfo_file.xsd">
